LAMMPS data file. CGCMM style. atom_style full generated by VMD/TopoTools v1.7 on Tue Mar 03 13:30:54 -0700 2020
 60 atoms
 11 bonds
 19 angles
 21 dihedrals
 0 impropers
 4 atom types
 4 bond types
 6 angle types
 5 dihedral types
 0 improper types
 0.000000 6.922000 xlo xhi
 0.000000 9.592000  ylo yhi
 0.000000 12.465000  zlo zhi

# Pair Coeffs
#
# 1  C
# 2  H
# 3  O
# 4  Pt

# Bond Coeffs
#
# 1  C-C
# 2  C-H
# 3  C-O
# 4  H-O

# Angle Coeffs
#
# 1  C-C-C
# 2  C-C-H
# 3  C-C-O
# 4  C-O-H
# 5  H-C-H
# 6  H-C-O

# Dihedral Coeffs
#
# 1  C-C-C-H
# 2  C-C-O-H
# 3  H-C-C-H
# 4  H-C-C-O
# 5  H-C-O-H

 Masses

 1 12.010700 # C
 2 1.007940 # H
 3 15.999400 # O
 4 195.078003 # Pt

 Atoms # full

1 1 4 0.000000 0.000000 0.000000 6.782000 # Pt 
2 1 4 0.000000 0.000000 9.592000 0.000000 # Pt 
3 1 4 0.000000 5.538000 0.000000 6.782000 # Pt 
4 1 4 0.000000 5.538000 9.592000 0.000000 # Pt 
5 1 4 0.000000 2.769000 4.796000 0.000000 # Pt 
6 1 4 0.000000 2.769000 4.796000 6.782000 # Pt 
7 1 4 0.000000 0.000000 6.394000 2.261000 # Pt 
8 1 4 0.000000 5.538000 6.394000 2.261000 # Pt 
9 1 4 0.000000 2.769000 7.993000 4.522000 # Pt 
10 1 4 0.000000 2.769000 1.599000 2.261000 # Pt 
11 1 4 0.000000 0.000000 3.197000 4.522000 # Pt 
12 1 4 0.000000 5.538000 3.197000 4.522000 # Pt 
13 1 4 0.000000 4.153000 8.792000 2.261000 # Pt 
14 1 4 0.000000 1.384000 3.997000 2.261000 # Pt 
15 1 4 0.000000 6.922000 3.997000 2.261000 # Pt 
16 1 4 0.000000 4.153000 5.595000 4.522000 # Pt 
17 1 4 0.000000 1.384000 7.194000 0.000000 # Pt 
18 1 4 0.000000 1.384000 7.194000 6.782000 # Pt 
19 1 4 0.000000 6.922000 7.194000 0.000000 # Pt 
20 1 4 0.000000 6.922000 7.194000 6.782000 # Pt 
21 1 4 0.000000 1.384000 0.799000 4.522000 # Pt 
22 1 4 0.000000 6.922000 0.799000 4.522000 # Pt 
23 1 4 0.000000 4.153000 2.398000 0.000000 # Pt 
24 1 4 0.000000 4.153000 2.398000 6.782000 # Pt 
25 1 4 0.000000 0.000000 1.599000 2.261000 # Pt 
26 1 4 0.000000 5.538000 1.599000 2.261000 # Pt 
27 1 4 0.000000 2.769000 6.394000 2.261000 # Pt 
28 1 4 0.000000 0.000000 7.993000 4.522000 # Pt 
29 1 4 0.000000 5.538000 7.993000 4.522000 # Pt 
30 1 4 0.000000 2.769000 0.000000 6.782000 # Pt 
31 1 4 0.000000 2.769000 9.592000 0.000000 # Pt 
32 1 4 0.000000 2.769000 3.197000 4.522000 # Pt 
33 1 4 0.000000 0.000000 4.796000 0.000000 # Pt 
34 1 4 0.000000 0.000000 4.796000 6.782000 # Pt 
35 1 4 0.000000 5.538000 4.796000 0.000000 # Pt 
36 1 4 0.000000 5.538000 4.796000 6.782000 # Pt 
37 1 4 0.000000 1.384000 8.792000 2.261000 # Pt 
38 1 4 0.000000 6.922000 8.792000 2.261000 # Pt 
39 1 4 0.000000 4.153000 3.997000 2.261000 # Pt 
40 1 4 0.000000 1.384000 5.595000 4.522000 # Pt 
41 1 4 0.000000 6.922000 5.595000 4.522000 # Pt 
42 1 4 0.000000 4.153000 7.194000 0.000000 # Pt 
43 1 4 0.000000 4.153000 7.194000 6.782000 # Pt 
44 1 4 0.000000 4.153000 0.799000 4.522000 # Pt 
45 1 4 0.000000 1.384000 2.398000 0.000000 # Pt 
46 1 4 0.000000 1.384000 2.398000 6.782000 # Pt 
47 1 4 0.000000 6.922000 2.398000 0.000000 # Pt 
48 1 4 0.000000 6.922000 2.398000 6.782000 # Pt 
49 2 1 0.000000 1.451500 2.453000 11.492400 # C UNL
50 2 1 0.000000 2.940600 2.747000 11.601500 # C UNL
51 2 2 0.000000 0.984890 3.064000 10.71220 # H UNL
52 2 2 0.000000 0.945160 2.699000 12.431400 # H UNL
53 2 2 0.000000 1.273000 1.398000 11.265200 # H UNL
54 2 1 0.000000 3.672300 2.473000 10.296900 # C UNL
55 2 2 0.000000 3.480800 1.458000 9.9352000 # H UNL
56 2 2 0.000000 4.751000 2.592000 10.437300 # H UNL
57 2 2 0.000000 3.376900 3.187000 9.519400 # H UNL
58 2 3 0.000000 3.125000 4.111000 11.965000 # O UNL
59 2 2 0.000000 3.373300 2.133000 12.399000 # H UNL
60 2 2 0.000000 2.711500 4.662000 11.278800 # H UNL

 Bonds

1 2 49 51
2 2 49 52
3 2 49 53
4 1 49 50
5 1 50 54
6 2 50 59
7 3 50 58
8 2 54 55
9 2 54 57
10 2 54 56
11 4 58 60

 Angles

1 5 51 49 52
2 5 51 49 53
3 2 50 49 51
4 5 52 49 53
5 2 50 49 52
6 2 50 49 53
7 1 49 50 54
8 2 49 50 59
9 3 49 50 58
10 2 54 50 59
11 3 54 50 58
12 6 58 50 59
13 2 50 54 55
14 2 50 54 57
15 2 50 54 56
16 5 55 54 57
17 5 55 54 56
18 5 56 54 57
19 4 50 58 60

 Dihedrals

1 1 51 49 50 54
2 3 51 49 50 59
3 4 51 49 50 58
4 1 52 49 50 54
5 3 52 49 50 59
6 4 52 49 50 58
7 1 53 49 50 54
8 3 53 49 50 59
9 4 53 49 50 58
10 1 49 50 54 55
11 1 49 50 54 57
12 1 49 50 54 56
13 3 59 50 54 55
14 3 59 50 54 57
15 3 59 50 54 56
16 4 58 50 54 55
17 4 58 50 54 57
18 4 58 50 54 56
19 2 49 50 58 60
20 2 54 50 58 60
21 5 59 50 58 60

